BEGIN_CFG
 Size # Number of atoms
    16
 Supercell # Supercell in Angstroms
    2.4166839122772217    -4.9108247756958008    0.0000000000000000
    2.4166839122772217    3.4608149528503418    0.0000000000000000
    0.0000000000000000    0.0000000000000000    27.0306930541992188
# AtomData columns: 
# id        : Unique identifier for each atom. (1-indexed)
# type      : Atom type (e.g., element index number (0-indexed)).
# cartes_x  : Cartesian X-coordinate of the atom's position. (Angstroms)
# cartes_y  : Cartesian Y-coordinate of the atom's position. (Angstroms)
# cartes_z  : Cartesian Z-coordinate of the atom's position. (Angstroms)
# fx        : Force acting on the atom in the X direction. (eV/Ang)
# fy        : Force acting on the atom in the Y direction.  (eV/Ang)
# fz        : Force acting on the atom in the Z direction.  (eV/Ang)
 AtomData:  id type    cartes_x    cartes_y    cartes_z    fx    fy    fz 
    1    0        1.173796     1.124233     5.125593    -0.716102    -0.544743    -0.045458
    2    0        1.227256     1.063519    18.846874    -1.107745    -0.871321     0.012202
    3    0        4.425022    -1.930088     6.030039     0.887828     1.377044    -0.117404
    4    0        2.071328     2.875868    19.704672     1.745575     1.629704    -0.742010
    5    0        2.159358    -1.126293     5.122790    -0.575571    -1.160334    -0.123366
    6    0        2.145289    -1.218929    18.617979    -0.144825    -0.316670     0.759616
    7    0        3.204013     0.528536     6.129256     1.280209     0.898379     0.047585
    8    0        3.318316     0.490525    19.698778     0.232655    -0.220296     0.065988
    9    0        1.580999    -0.653629     7.359088    -1.449382    -0.474662    -0.208109
    10   0        1.578366    -0.717475    21.027683    -1.553980    -0.896251    -0.841632
    11   0        2.588510     1.138247     8.302714     0.194393     0.895132     0.153479
    12   0        2.391416     0.983848    21.892586     0.688689     2.438294     0.303189
    13   0        2.881953    -2.967384     7.283367    -0.947906    -1.141830     0.430586
    14   0        2.810045    -2.543850    20.922508    -0.793969    -2.368399     0.640443
    15   0        3.587738    -1.044749     8.278619     1.328986     0.150209    -0.136211
    16   0        3.940224    -0.913204    21.903006     0.930934     0.606895    -0.200644
 Energy # This is the extensive energy (ie. total energy not energy per system) in eV
    -72.4231185913086
 PlusStress:  xx          yy          zz          yz          xz          xy # This is the extensive virial stress in eV (ie/ not GPa). It is the intensive stress (GPA) times the cell volume.
     -5.3111581802368164e+00    -5.8418831825256348e+00    -1.1563930511474609e+00     5.6451492309570312e+00     3.2493100166320801e+00     1.2192369461059570e+01
 Feature EFS_by Qe # Optiional Metadata
END_CFG

# There can be more configurations in a single file
BEGIN_CFG
...
END_CFG

BEGIN_CFG
...
END_CFG