BEGIN_CFG
 Size
    16
 Supercell
    4.9485569000244141    0.0000000000000000    0.0000000000000000
    2.4742779731750488    4.2855749130249023    0.0000000000000000
    1.2210539579391479    2.1149280071258545    8.1403617858886719
 AtomData:  id type    cartes_x    cartes_y    cartes_z    fx    fy    fz
    1    0        1.247141     1.106306     2.990077     0.535049     0.300354     0.140217
    2    0        3.850989     5.455945     6.975883    -1.750395    -0.085689     1.643370
    3    0        4.848273     3.277649     2.950059    -0.073601    -1.106989     0.745052
    4    0        5.231662     3.629546     7.340433    -2.445759    -2.790589    -0.244411
    5    0        6.268887     5.053991     3.066238    -2.834572     4.095417     1.748609
    6    0        6.265594     5.568437     7.109507     1.011943     1.037033    -0.583133
    7    0        2.377978     3.294558     3.067248     1.756155    -3.285847     0.679634
    8    0        2.405883     3.240366     7.015714     2.526879     0.471187     1.422946
    9    0        3.634241     2.614684     1.047144    -0.591785     1.129463     0.947234
    10   0        3.794408     3.661946     5.144513    -0.967714    -0.526655    -0.339484
    11   0        4.810190     0.506503     1.241910     1.535451    -0.546570    -3.198439
    12   0        5.000258     1.470405     5.004898    -0.448772     0.367761     0.124249
    13   0        6.077987     2.666342     0.920276     0.546261    -0.504208     0.242472
    14   0        6.085475     3.638244     5.284927     0.814954    -0.009226    -2.592160
    15   0        2.425554     0.542355     0.895538    -0.417795    -0.062451     0.458554
    16   0        2.480993     1.414042     5.068523     0.803147     1.517172    -1.193900
 Energy
    -83.9250717163086
 PlusStress:  xx          yy          zz          yz          xz          xy
      1.3372977256774902e+01     8.1023292541503906e+00     1.4037208557128906e+01     2.0004289150238037e+00    -2.2917089462280273e+00    -3.1614000797271729e+00
 Feature EFS_by Qe
END_CFG

BEGIN_CFG
 Size
    16
 Supercell
    2.3820500373840332    -4.1258320808410645    0.0000000000000000
    2.3820500373840332    4.1258320808410645    0.0000000000000000
    -8.9474000930786133    0.0000000000000000    29.8246688842773438
 AtomData:  id type    cartes_x    cartes_y    cartes_z    fx    fy    fz
    1    0        0.008167     0.056121     6.269947     0.314536    -0.450375     0.136724
    2    0       -4.695260    -0.039063    21.232939    -1.252907     0.792385     0.071122
    3    0        1.109866     2.169599     6.374848     1.022501    -0.606193     0.017058
    4    0       -3.581744     2.117981    21.268707     0.469027    -0.528985    -0.267000
    5    0        1.205575    -2.094247     6.288424    -0.697488     0.914754    -0.199795
    6    0       -3.513520    -2.008743    21.190826    -0.728916    -1.460864     0.095382
    7    0        2.398863     0.045811     6.324562    -0.657773     0.240459    -0.149153
    8    0       -2.463165    -0.039308    21.278418     1.516229     1.217678     0.304039
    9    0       -0.063639    -0.029545     8.567589     1.104677    -0.397508    -0.178116
    10   0       -4.822564    -0.165874    23.508003     0.730663     2.108545    -0.072219
    11   0       -1.206353    -2.111261     8.632062     0.438013    -0.273361     0.075871
    12   0       -3.513789     2.105103    23.491554    -1.454856    -0.883303     0.241397
    13   0       -1.155857     2.006435     8.528268    -0.535905     0.511325     0.145902
    14   0       -3.511386    -2.092492    23.489189     0.422092     0.076530    -0.203152
    15   0       -2.330222    -0.047362     8.566610    -0.989359     0.062722     0.150104
    16   0       -2.449571     0.126847    23.585279     0.299557    -1.320786    -0.170927
 Energy
    -75.10710144042969
 PlusStress:  xx          yy          zz          yz          xz          xy
      4.8630990982055664e+00     5.9809088706970215e+00    -6.8308699131011963e-01    -3.2628500461578369e-01     2.9828301072120667e-01     6.9116801023483276e-01
 Feature EFS_by Qe
END_CFG

BEGIN_CFG
 Size
    16
 Supercell
    2.4166839122772217    -3.4608149528503418    0.0000000000000000
    2.4166839122772217    4.9108247756958008    0.0000000000000000
    0.0000000000000000    0.0000000000000000    27.0306930541992188
 AtomData:  id type    cartes_x    cartes_y    cartes_z    fx    fy    fz
    1    0        1.272433     0.631859     5.729161     1.371897    -2.109547    -0.103692
    2    0        1.281562     0.614183    19.257463     0.766528    -1.723966    -0.054587
    3    0        2.477219     2.752363     5.758746     2.388140    -1.462051     0.190529
    4    0        2.492344     2.745702    19.271929     2.290088    -1.245701     0.233946
    5    0        2.348381    -1.339243     5.737207    -1.922227     1.470652    -0.225955
    6    0        2.367381    -1.320778    19.249111    -1.597515     0.937147    -0.194387
    7    0        3.575251     0.792387     5.748619    -0.920382     2.325524    -0.075384
    8    0        3.549324     0.765427    19.270626    -0.585534     2.275904    -0.161373
    9    0        1.246022    -0.787154     7.763090     1.020455    -2.294553     0.044096
    10   0        1.241198    -0.819068    21.283749     0.660854    -1.901604    -0.013186
    11   0        2.483358     1.320637     7.781015     1.785060    -1.353724     0.261954
    12   0        2.498513     1.352357    21.283525     1.382609    -1.008820     0.284154
    13   0        2.345515    -2.742208     7.753388    -2.291378     1.400064    -0.225749
    14   0        2.356066    -2.739843    21.280455    -1.865954     1.177038    -0.249549
    15   0        3.577709    -0.629666     7.768368    -1.428803     2.023681     0.136217
    16   0        3.554668    -0.596956    21.309101    -1.047697     1.490105     0.153737
 Energy
    -70.11896514892578
 PlusStress:  xx          yy          zz          yz          xz          xy
      2.2669940948486328e+01     3.6671749114990234e+01     1.2855100631713867e-01    -9.1824400424957275e-01    -3.5235359668731689e+00    -4.1407543182373047e+01
 Feature EFS_by Qe
END_CFG

BEGIN_CFG
 Size
    32
 Supercell
    7.0115962028503418    -2.1034789085388184    0.0000000000000000
    0.0000000000000000    7.0115962028503418    0.0000000000000000
    0.0000000000000000    0.0000000000000000    7.0115962028503418
 AtomData:  id type    cartes_x    cartes_y    cartes_z    fx    fy    fz
    1    0        0.166274     0.022958     6.968849     0.315869    -1.254516     0.632584
    2    0        0.238587     6.934827     3.503797     0.278514     0.248690    -0.450672
    3    0        0.099400     3.578163     0.047463     1.601427    -0.698547    -0.679360
    4    0        0.147245     3.532518     3.550422     0.877696    -0.787966     0.462993
    5    0        3.537227    -0.034649     6.991106    -0.858246     0.930931     0.359924
    6    0        3.569111     0.072937     3.470638    -1.938668    -0.664694     0.493585
    7    0        3.537211     3.541650     0.008995    -0.987031    -0.332855    -0.089488
    8    0        3.417507     3.457630     3.541308     0.163712     0.978139    -0.529080
    9    0        0.083367     1.702890     1.742322     0.800979    -0.512061     0.253654
    10   0        0.091958     1.542567     5.263722     0.620504     0.768526    -0.926325
    11   0        0.148830     5.194511     1.795867     0.902785     0.276831    -0.118605
    12   0        0.216670     5.278606     5.252977    -0.379036    -1.115716     0.194139
    13   0        3.545908     1.699796     1.698692    -1.728379     0.893443     0.154279
    14   0        3.551779     1.729431     5.259650    -1.606316     0.561886     0.407598
    15   0        3.570700     5.214403     1.739779    -1.535687    -0.012491     0.610285
    16   0        3.452945     5.387467     5.333491     0.341864    -1.437987    -1.185599
    17   0        1.769893    -0.043168     1.593411     0.638413     0.603546     1.540650
    18   0        1.757151    -0.102946     5.337535     1.158948     1.626526    -0.939360
    19   0        1.659289     3.454264     1.771115     1.640099     0.340825    -0.309504
    20   0        1.844500     3.398560     5.331596    -0.614117     1.090001    -0.729957
    21   0        5.021242    -0.004093     1.772272     0.470875     0.466261    -0.424845
    22   0        5.074700     0.098244     5.256840     0.444657    -0.257535     0.054132
    23   0        5.104386     3.462955     1.748955    -0.847089     0.748720     0.453201
    24   0        5.073593     3.612715     5.194252     0.041760     0.091149     0.362998
    25   0        1.627045     1.839851     6.964200     1.766888    -0.859863     0.653719
    26   0        1.787299     1.803713     3.412861    -0.047864    -1.229636     0.839240
    27   0        1.794253     5.277920     0.035026     0.159350    -1.057139     0.021498
    28   0        1.791375     5.285039     3.492651     1.189967    -0.547386    -0.078581
    29   0        5.104592     1.803291     0.031858    -1.369959     0.311971    -0.590329
    30   0        5.081474     1.811679     3.536248    -0.204655     0.462322    -0.407867
    31   0        5.118972     5.272290     0.036245    -0.513299     0.363306    -0.343339
    32   0        5.154669     5.324728     3.489799    -0.786116     0.006522     0.309314
 Energy
    -165.85357666015625
 PlusStress:  xx          yy          zz          yz          xz          xy
      5.8269737243652344e+01     2.2807477951049805e+01     2.0339233398437500e+01    -1.8139399588108063e-01    -1.6756899654865265e-01    -1.3775051116943359e+01
 Feature EFS_by Qe
END_CFG

BEGIN_CFG
 Size
    32
 Supercell
    7.0115962028503418    0.0000000000000000    0.0000000000000000
    0.0000000000000000    7.0115962028503418    0.0000000000000000
    0.0000000000000000    0.0000000000000000    4.9081168174743652
 AtomData:  id type    cartes_x    cartes_y    cartes_z    fx    fy    fz
    1    0        7.010623     0.000949     0.308712     0.020811     0.021999    12.290511
    2    0        0.006375     7.008387     3.204042    -0.095528     0.037808     0.639703
    3    0        7.011381     3.506966     0.323306    -0.042378     0.009588    12.431908
    4    0        7.010756     3.508279     3.214334    -0.051425    -0.067436     0.751639
    5    0        3.505645     0.002801     0.307896    -0.010387     0.110249    12.280597
    6    0        3.508665     0.004564     3.204895    -0.093998    -0.115569     0.678207
    7    0        3.507795     3.509494     0.316593     0.061525    -0.062856    12.375174
    8    0        3.498821     3.500322     3.208595     0.061049     0.001461     0.661078
    9    0        7.006961     1.753000     2.052671     0.048451     0.006684    -0.640816
    10   0        7.008651     1.753316     0.037393    -0.125469     0.141062   -12.344352
    11   0        7.009760     5.254760     2.051006     0.046306     0.020952    -0.710733
    12   0        0.002948     5.260784     0.036329    -0.070365    -0.145037   -12.377190
    13   0        3.509412     1.750396     2.046223    -0.018063     0.068191    -0.748215
    14   0        3.502722     1.755449     0.032520     0.078371     0.129734   -12.348090
    15   0        3.511719     5.252964     2.055057    -0.049688     0.046583    -0.638167
    16   0        3.506817     5.262955     0.042822     0.093016    -0.081076   -12.273909
    17   0        1.755342     7.009443     2.048002     0.041964     0.033792    -0.700711
    18   0        1.752770     7.008686     0.036859    -0.024103    -0.132007   -12.243788
    19   0        1.743912     3.504707     2.053709     0.066182     0.080530    -0.690052
    20   0        1.754787     3.502213     0.043031    -0.079043     0.025464   -12.279619
    21   0        5.255542     7.008970     2.051382     0.149884     0.048715    -0.672999
    22   0        5.258199     0.003961     0.037090     0.010797     0.039654   -12.330571
    23   0        5.259040     3.500473     2.049222    -0.042567     0.101920    -0.668941
    24   0        5.258636     3.509890     0.027676     0.105901    -0.009045   -12.536002
    25   0        1.748865     1.750239     0.303420     0.055688    -0.117576    12.213274
    26   0        1.756502     1.754131     3.201258    -0.053757    -0.093450     0.628100
    27   0        1.754408     5.254286     0.312655    -0.008913     0.058672    12.279450
    28   0        1.755937     5.261312     3.207190    -0.006350    -0.033361     0.661798
    29   0        5.256603     1.757636     0.320786    -0.108589     0.035947    12.460790
    30   0        5.256822     1.752957     3.211549     0.016480    -0.073162     0.742028
    31   0        5.261048     5.261672     0.317827     0.037831    -0.006057    12.389322
    32   0        5.261262     5.259573     3.210163    -0.013370    -0.083854     0.721767
 Energy
    -61.734188079833984
 PlusStress:  xx          yy          zz          yz          xz          xy
      4.7006750488281250e+02     4.7007174682617188e+02     2.6554592895507812e+02    -5.4484897851943970e-01    -3.2367199659347534e-01    -1.7780000343918800e-03
 Feature EFS_by Qe
END_CFG

BEGIN_CFG
 Size
    33
 Supercell
    7.0479998588562012    0.0000000000000000    0.0000000000000000
    0.0000000000000000    7.0479998588562012    0.0000000000000000
    0.0000000000000000    0.0000000000000000    7.0479998588562012
 AtomData:  id type    cartes_x    cartes_y    cartes_z    fx    fy    fz
    1    0        1.762000     1.762000     0.000000     2.200026     4.600478     0.000001
    2    0        0.000000     1.762000     1.762000     0.000001     0.142683     0.142679
    3    0        1.762000     0.000000     1.762000     2.200025     0.000003     4.600482
    4    0        3.524000     0.000000     0.000000     0.000001     0.000002    -0.000003
    5    0        5.286000     1.762000     0.000000    -2.200025     4.600480     0.000001
    6    0        3.524000     1.762000     1.762000    -0.000001     0.130051     0.130051
    7    0        5.286000     0.000000     1.762000    -2.200027     0.000001     4.600483
    8    0        0.000000     3.524000     0.000000     0.000000     0.000000     0.000002
    9    0        1.762000     5.286000     0.000000     2.200026    -4.600485    -0.000003
    10   0        0.000000     5.286000     1.762000    -0.000001    -0.142683     0.142682
    11   0        1.762000     3.524000     1.762000     0.026409    -0.000001     0.024384
    12   0        3.524000     3.524000     0.000000     0.000002    -0.000003    -0.000003
    13   0        5.286000     5.286000     0.000000    -2.200023    -4.600480    -0.000002
    14   0        3.524000     5.286000     1.762000     0.000001    -0.130052     0.130053
    15   0        5.286000     3.524000     1.762000    -0.026409    -0.000000     0.024385
    16   0        0.000000     0.000000     3.524000    -0.000000    -0.000002    -0.000000
    17   0        1.762000     1.762000     3.524000     0.026413     0.024386    -0.000001
    18   0        0.000000     1.762000     5.286000     0.000001     0.142686    -0.142685
    19   0        1.762000     0.000000     5.286000     2.200029    -0.000001    -4.600480
    20   0        3.524000     0.000000     3.524000    -0.000002     0.000000     0.000005
    21   0        5.286000     1.762000     3.524000    -0.026413     0.024384    -0.000002
    22   0        3.524000     1.762000     5.286000    -0.000001     0.130049    -0.130050
    23   0        5.286000     0.000000     5.286000    -2.200029    -0.000003    -4.600478
    24   0        0.000000     3.524000     3.524000     0.000000     0.000001    -0.000001
    25   0        1.762000     5.286000     3.524000     0.026411    -0.024385     0.000001
    26   0        0.000000     5.286000     5.286000    -0.000001    -0.142681    -0.142682
    27   0        1.762000     3.524000     5.286000     0.026413     0.000002    -0.024384
    28   0        3.524000     3.524000     3.524000    -0.000000     0.000000     0.000002
    29   0        5.286000     5.286000     3.524000    -0.026411    -0.024385     0.000001
    30   0        3.524000     5.286000     5.286000     0.000001    -0.130049    -0.130051
    31   0        5.286000     3.524000     5.286000    -0.026414     0.000002    -0.024386
    32   0        0.881000     0.000000     0.000000     1.093788     0.000011    -0.000003
    33   0        6.167000     0.000000     0.000000    -1.093789    -0.000001    -0.000008
 Energy
    -171.2288360595703
 PlusStress:  xx          yy          zz          yz          xz          xy
      3.5284412384033203e+01     3.1142108917236328e+01     3.1142114639282227e+01    -4.1999999666586518e-05    -2.5999999706982635e-05    -6.5000000176951289e-05
 Feature EFS_by Qe
END_CFG

BEGIN_CFG
 Size
    16
 Supercell
    2.4166839122772217    -4.1858201026916504    0.0000000000000000
    2.4166839122772217    4.1858201026916504    0.0000000000000000
    -8.1092081069946289    0.0000000000000000    27.0306930541992188
 AtomData:  id type    cartes_x    cartes_y    cartes_z    fx    fy    fz
    1    0        1.209615     0.725664     5.722374     0.227198    -0.282994     0.010861
    2    0       -3.586091     0.674609    19.261059    -0.597360     0.343948     0.073063
    3    0       -0.042712    -1.344586     5.769148     0.553122    -0.417098    -0.249539
    4    0       -4.840994    -1.367213    19.278749     0.120258    -0.232532    -0.101705
    5    0        0.011317     2.770803     5.733251    -0.370043     0.454304     0.021675
    6    0       -2.385144    -1.361097    19.242098    -0.317967    -0.733626     0.136099
    7    0       -1.196549     0.716242     5.748623    -0.382270     0.082459    -0.062803
    8    0       -3.670840    -3.513897    19.278643     0.772806     0.595270    -0.144924
    9    0        1.173020    -0.707807     7.760068     0.610477    -0.147275     0.002460
    10   0       -3.654831    -0.783859    21.287203     0.362029     0.949134     0.024584
    11   0       -0.009913    -2.809903     7.786271     0.217969    -0.105421    -0.088118
    12   0       -2.381162     1.419126    21.277884    -0.709590    -0.309344     0.148258
    13   0        0.019314     1.366513     7.740760    -0.258790     0.296769     0.165216
    14   0       -4.809689     1.381921    21.279373     0.223150     0.059650    -0.099538
    15   0       -1.179038    -0.718915     7.757799    -0.597804     0.119628     0.201288
    16   0       -3.656511     3.552398    21.322252     0.146232    -0.671617    -0.035428
 Energy
    -77.49044799804688
 PlusStress:  xx          yy          zz          yz          xz          xy
      5.4302102327346802e-01     4.3963798880577087e-01    -6.3217997550964355e-02     3.6793801188468933e-01     4.3467000126838684e-02     1.5507300198078156e-01
 Feature EFS_by Qe
END_CFG

BEGIN_CFG
 Size
    32
 Supercell
    9.1150751113891602    0.0000000000000000    0.0000000000000000
    0.0000000000000000    7.0115962028503418    0.0000000000000000
    0.0000000000000000    0.0000000000000000    7.0115962028503418
 AtomData:  id type    cartes_x    cartes_y    cartes_z    fx    fy    fz
    1    0        9.105723     0.062401     6.964796    -0.644152    -0.991162     0.771584
    2    0        0.142560     6.948720     3.492563    -0.396271     0.427469    -0.401715
    3    0        8.982746     3.662907     0.056719     0.018128    -0.501980    -0.589050
    4    0        9.104221     3.582377     3.583857     0.042306    -0.523112     0.214793
    5    0        3.592127     6.978095     6.989562    -0.162432     0.602458     0.448624
    6    0        3.612910     0.091335     3.458203    -1.134220    -0.740189     0.433592
    7    0        3.589088     3.544880     0.016254    -0.264451    -0.483723    -0.099416
    8    0        3.427130     3.450322     3.548105     0.665578     0.612511    -0.516647
    9    0        9.004743     1.722203     1.744667     0.019374     0.017670     0.239463
    10   0        9.030646     1.509172     5.248947    -0.047723     1.282239    -0.805911
    11   0        9.090261     5.219851     1.813797    -0.096505     0.539449    -0.116675
    12   0        0.119721     5.313994     5.251801    -0.714767    -0.762573     0.133300
    13   0        3.587460     1.687247     1.665285    -0.839104     0.757448     0.194153
    14   0        3.599969     1.716327     5.271701    -0.752278     0.389736     0.343846
    15   0        3.627921     5.184866     1.747556    -0.780026     0.040491     0.436054
    16   0        3.483570     5.418260     5.343726     0.758908    -1.570058    -1.114330
    17   0        1.740121     6.964307     1.542229    -0.002443     0.794188     1.571986
    18   0        1.729778     6.902783     5.358026     0.441959     1.766715    -0.693536
    19   0        1.588177     3.443401     1.770290     0.739605     0.595510    -0.345972
    20   0        1.828561     3.372448     5.352330    -0.931714     1.357472    -0.999250
    21   0        5.156704     6.965977     1.774334     1.321322     0.350094    -0.360232
    22   0        5.221477     0.083227     5.257469     0.976926    -0.688395     0.001375
    23   0        5.277546     3.399956     1.759354     0.267632     0.557668     0.373138
    24   0        5.180326     3.628807     5.166649     0.324469    -0.286594     0.423561
    25   0        1.542537     1.870929     6.955486     0.777490    -0.869377     0.840992
    26   0        1.751256     1.801654     3.381857    -0.493228    -1.022458     0.813836
    27   0        1.765288     5.260475     0.056622    -0.329734    -1.033224    -0.167979
    28   0        1.785587     5.292925     3.482173     0.408385    -0.405001    -0.101436
    29   0        5.310174     1.776091     0.040611     0.228217    -0.097891    -0.504525
    30   0        5.236153     1.801335     3.547010     0.505938     0.061695    -0.284973
    31   0        5.302980     5.233778     0.044635     0.343524     0.058715    -0.336500
    32   0        5.312140     5.306081     3.487325    -0.254947    -0.235606     0.199177
 Energy
    -160.6278839111328
 PlusStress:  xx          yy          zz          yz          xz          xy
     -9.3908090591430664e+00    -7.0868067741394043e+00    -6.9294419288635254e+00    -1.6378000378608704e-01    -4.3720099329948425e-01    -6.6327500343322754e-01
 Feature EFS_by Qe
END_CFG

BEGIN_CFG
 Size
    16
 Supercell
    5.8687448501586914    0.0000000000000000    0.0000000000000000
    1.9336880445480347    4.3540210723876953    0.0000000000000000
    0.0000000000000000    0.0000000000000000    29.8246688842773438
 AtomData:  id type    cartes_x    cartes_y    cartes_z    fx    fy    fz
    1    0        3.944463     1.843357     9.087696     0.053996     0.330533     0.048370
    2    0        4.393875     2.847012    18.991901    -0.446542     0.165094     0.519363
    3    0        5.762548     0.287171     9.058229     0.438839     0.361560    -0.325237
    4    0        0.990108     1.258203    18.902279     0.210607    -0.579944     0.300119
    5    0        6.434597     2.635437     9.253789     0.371125     0.134889    -0.429384
    6    0        1.722209     3.449804    18.916237     0.852703     0.269137     0.198727
    7    0        4.472441     4.297340     9.257070     0.332970    -0.114865     0.264058
    8    0        3.678254     0.538688    18.870276    -0.079021     0.314751    -0.271604
    9    0        5.125026     2.624425    11.041271    -0.225282     0.454004     0.404065
    10   0        3.276601     3.974481    20.840702    -0.310392    -0.212034    -0.846536
    11   0        1.322436     1.129629    10.955883     0.051228     0.737606    -0.270207
    12   0        6.120305     3.449016    20.606340    -0.289706    -0.113356     0.658344
    13   0        2.826761     3.288109    10.615792    -0.939268    -1.389014     0.419343
    14   0        5.267127     1.257102    20.585939    -0.162439    -0.402125    -0.083523
    15   0        4.456034     0.382325    10.938764    -0.085902    -0.514160    -0.114042
    16   0        2.626683     1.570069    20.675028     0.223995     0.561316    -0.486942
 Energy
    -71.56704711914062
 PlusStress:  xx          yy          zz          yz          xz          xy
     -2.2386550903320312e+01    -1.1960343360900879e+01    -1.4076980352401733e+00    -1.0982650518417358e+00    -2.8388040065765381e+00     4.3876070976257324e+00
 Feature EFS_by Qe
END_CFG

BEGIN_CFG
 Size
    16
 Supercell
    1.6674350500106812    -4.1258320808410645    0.0000000000000000
    1.6674350500106812    4.1258320808410645    0.0000000000000000
    0.0000000000000000    0.0000000000000000    29.8246688842773438
 AtomData:  id type    cartes_x    cartes_y    cartes_z    fx    fy    fz
    1    0        0.347448     0.007170     6.299855     2.482984    -0.037302    -1.428004
    2    0        0.330651    -0.003572    21.219267     5.747526     0.331298    -1.425946
    3    0        1.186573     2.056590     6.319654     0.121563    -0.107995    -1.063348
    4    0        1.194037     2.045774    21.228535     0.057451    -0.689862    -1.120546
    5    0        1.187310    -2.047379     6.307038    -0.077385     0.203298    -1.548881
    6    0        1.194441    -2.034328    21.216991    -0.090835     0.095348    -1.512286
    7    0        2.037522     0.004643     6.309766    -2.525473    -0.033343    -1.150143
    8    0        2.049610    -0.004168    21.226620    -5.718579     0.271809    -1.061593
    9    0        0.347242    -0.003015     8.602076     1.916547    -0.045961     1.231863
    10   0        0.318129    -0.027106    23.514832     7.077888    -0.085603     1.030780
    11   0        1.192167     2.037454     8.607440     0.044773    -0.143696     1.616335
    12   0        1.197800     2.045468    23.511808    -0.132956    -0.522882     1.307347
    13   0        1.192450    -2.049640     8.591827    -0.061703     0.217247     1.044158
    14   0        1.199921    -2.044476    23.511681     0.010918     0.352435     1.249072
    15   0        2.033079    -0.006380     8.601224    -1.900749    -0.053990     1.297080
    16   0        2.048019     0.022966    23.528614    -6.951857     0.250318     1.534631
 Energy
    -15.295697212219238
 PlusStress:  xx          yy          zz          yz          xz          xy
      4.2293124389648438e+02     1.0938004302978516e+02     2.2762996673583984e+01    -8.0796003341674805e-02    -1.5169900655746460e-01    -4.1191101074218750e-01
 Feature EFS_by Qe
END_CFG

BEGIN_CFG
 Size
    16
 Supercell
    2.4166839122772217    -4.9108247756958008    0.0000000000000000
    2.4166839122772217    3.4608149528503418    0.0000000000000000
    0.0000000000000000    0.0000000000000000    27.0306930541992188
 AtomData:  id type    cartes_x    cartes_y    cartes_z    fx    fy    fz
    1    0        1.173796     1.124233     5.125593    -0.716102    -0.544743    -0.045458
    2    0        1.227256     1.063519    18.846874    -1.107745    -0.871321     0.012202
    3    0        4.425022    -1.930088     6.030039     0.887828     1.377044    -0.117404
    4    0        2.071328     2.875868    19.704672     1.745575     1.629704    -0.742010
    5    0        2.159358    -1.126293     5.122790    -0.575571    -1.160334    -0.123366
    6    0        2.145289    -1.218929    18.617979    -0.144825    -0.316670     0.759616
    7    0        3.204013     0.528536     6.129256     1.280209     0.898379     0.047585
    8    0        3.318316     0.490525    19.698778     0.232655    -0.220296     0.065988
    9    0        1.580999    -0.653629     7.359088    -1.449382    -0.474662    -0.208109
    10   0        1.578366    -0.717475    21.027683    -1.553980    -0.896251    -0.841632
    11   0        2.588510     1.138247     8.302714     0.194393     0.895132     0.153479
    12   0        2.391416     0.983848    21.892586     0.688689     2.438294     0.303189
    13   0        2.881953    -2.967384     7.283367    -0.947906    -1.141830     0.430586
    14   0        2.810045    -2.543850    20.922508    -0.793969    -2.368399     0.640443
    15   0        3.587738    -1.044749     8.278619     1.328986     0.150209    -0.136211
    16   0        3.940224    -0.913204    21.903006     0.930934     0.606895    -0.200644
 Energy
    -72.4231185913086
 PlusStress:  xx          yy          zz          yz          xz          xy
     -5.3111581802368164e+00    -5.8418831825256348e+00    -1.1563930511474609e+00     5.6451492309570312e+00     3.2493100166320801e+00     1.2192369461059570e+01
 Feature EFS_by Qe
END_CFG

BEGIN_CFG
 Size
    16
 Supercell
    4.1605968475341797    0.0000000000000000    0.0000000000000000
    1.5557650327682495    4.7242932319641113    0.0000000000000000
    0.0000000000000000    0.0000000000000000    29.8246688842773438
 AtomData:  id type    cartes_x    cartes_y    cartes_z    fx    fy    fz
    1    0        4.229992     0.252711     7.331768     0.219098    -0.371448    -0.228561
    2    0        2.635016     4.710030    20.430702    -0.096855    -0.164821    -0.525663
    3    0        2.800204     1.881379     6.353102     0.464947    -0.093392     0.057309
    4    0        3.193768     0.539779    21.294275     0.352568    -0.012308    -0.159521
    5    0        3.623266     4.121794     6.314359    -0.049107     0.586544     0.069277
    6    0        3.803203     2.897399    21.276621     0.539342     0.171598     0.472962
    7    0        0.885248     2.634733     7.327414    -0.230545    -0.534635     0.393509
    8    0        1.714695     2.414274    20.508993     0.214692    -0.174897    -0.910418